117 uwb97xd/Def2SVPD                                                    
SP        UwB97XD                                                     Gen                 
Number of atoms                            I                8
Info1-9                                    I   N=           9
         119         113           0           0           0         111
           1          18        -802
Charge                                     I                0
Multiplicity                               I                1
Number of electrons                        I               48
Number of alpha electrons                  I               24
Number of beta electrons                   I               24
Number of basis functions                  I              137
Number of independent functions            I              137
Number of point charges in /Mol/           I                0
Number of translation vectors              I                0
Atomic numbers                             I   N=           8
          17           8           8           6           6           1
           1           1
Nuclear charges                            R   N=           8
  1.70000000E+01  8.00000000E+00  8.00000000E+00  6.00000000E+00  6.00000000E+00
  1.00000000E+00  1.00000000E+00  1.00000000E+00
Current cartesian coordinates              R   N=          24
  4.11153384E+00  2.57002754E-03  1.27556514E-02 -3.20622274E+00  1.13410024E+00
  1.45508912E-03 -9.96603768E-01 -2.47418063E+00 -2.84214810E-02  1.17180028E+00
  1.57219545E+00  1.95586655E-02 -1.05716949E+00 -2.21778259E-01 -5.66917840E-03
  1.06365125E+00  2.79139006E+00 -1.63408398E+00  1.05325776E+00  2.75745058E+00
  1.69699296E+00 -4.59575726E+00 -4.77155849E-02 -1.49477337E-02
Force Field                                I                0
Int Atom Types                             I   N=           8
           0           0           0           0           0           0
           0           0
MM charges                                 R   N=           8
  0.00000000E+00  0.00000000E+00  0.00000000E+00  0.00000000E+00  0.00000000E+00
  0.00000000E+00  0.00000000E+00  0.00000000E+00
Integer atomic weights                     I   N=           8
          35          16          16          12          12           1
           1           1
Real atomic weights                        R   N=           8
  3.49688527E+01  1.59949146E+01  1.59949146E+01  1.20000000E+01  1.20000000E+01
  1.00782504E+00  1.00782504E+00  1.00782504E+00
Atom fragment info                         I   N=           8
           0           0           0           0           0           0
           0           0
Atom residue num                           I   N=           8
           0           0           0           0           0           0
           0           0
Nuclear spins                              I   N=           8
           3           0           0           0           0           1
           1           1
Nuclear ZEff                               R   N=           8
 -1.42400000E+01 -5.60000000E+00 -5.60000000E+00 -3.60000000E+00 -3.60000000E+00
 -1.00000000E+00 -1.00000000E+00 -1.00000000E+00
Nuclear ZNuc                               R   N=           8
  1.70000000E+01  8.00000000E+00  8.00000000E+00  6.00000000E+00  6.00000000E+00
  1.00000000E+00  1.00000000E+00  1.00000000E+00
Nuclear QMom                               R   N=           8
 -8.16500000E+00  0.00000000E+00  0.00000000E+00  0.00000000E+00  0.00000000E+00
  0.00000000E+00  0.00000000E+00  0.00000000E+00
Nuclear GFac                               R   N=           8
  8.21874000E-01  0.00000000E+00  0.00000000E+00  0.00000000E+00  0.00000000E+00
  2.79284600E+00  2.79284600E+00  2.79284600E+00
MicOpt                                     I   N=           8
          -1          -1          -1          -1          -1          -1
          -1          -1
Number of contracted shells                I               57
Number of primitive shells                 I               97
Pure/Cartesian d shells                    I                0
Pure/Cartesian f shells                    I                0
Highest angular momentum                   I                2
Largest degree of contraction              I                5
Shell types                                I   N=          57
           0           0           0           0           0           1
           1           1           1          -2          -2           0
           0           0           0           1           1           1
          -2          -2           0           0           0           0
           1           1           1          -2          -2           0
           0           0           0           1           1          -2
          -2           0           0           0           0           1
           1          -2          -2           0           0           1
           1           0           0           1           1           0
           0           1           1
Number of primitives per shell             I   N=          57
           5           3           1           1           1           5
           1           1           1           1           1           5
           1           1           1           3           1           1
           1           1           5           1           1           1
           3           1           1           1           1           5
           1           1           1           3           1           1
           1           5           1           1           1           3
           1           1           1           3           1           1
           1           3           1           1           1           3
           1           1           1
Shell to atom map                          I   N=          57
           1           1           1           1           1           1
           1           1           1           1           1           2
           2           2           2           2           2           2
           2           2           3           3           3           3
           3           3           3           3           3           4
           4           4           4           4           4           4
           4           5           5           5           5           5
           5           5           5           6           6           6
           6           7           7           7           7           8
           8           8           8
Primitive exponents                        R   N=          97
  1.04498276E+04  1.57173652E+03  3.57120655E+02  1.00251859E+02  3.08127276E+01
  5.19237894E+01  5.70457610E+00  2.35083768E+00  4.46051247E-01  1.68488562E-01
  5.53442294E-02  3.07667906E+02  7.21020155E+01  2.25326803E+01  7.89917654E+00
  2.87672683E+00  7.74593640E-01  2.10376997E-01  5.00462711E-02  6.50000000E-01
  1.22848034E-01  2.26617678E+03  3.40870102E+02  7.73631352E+01  2.14796449E+01
  6.65894331E+00  8.09759757E-01  2.55307722E-01  7.65724533E-02  1.77215043E+01
  3.86355054E+00  1.04809209E+00  2.76415444E-01  6.90022764E-02  1.20000000E+00
  1.79920243E-01  2.26617678E+03  3.40870102E+02  7.73631352E+01  2.14796449E+01
  6.65894331E+00  8.09759757E-01  2.55307722E-01  7.65724533E-02  1.77215043E+01
  3.86355054E+00  1.04809209E+00  2.76415444E-01  6.90022764E-02  1.20000000E+00
  1.79920243E-01  1.23840169E+03  1.86290050E+02  4.22511763E+01  1.16765579E+01
  3.59305065E+00  4.02451474E-01  1.30901827E-01  6.70535403E-02  9.46809706E+00
  2.01035451E+00  5.47710047E-01  1.52686138E-01  8.00000000E-01  1.17131851E-01
  1.23840169E+03  1.86290050E+02  4.22511763E+01  1.16765579E+01  3.59305065E+00
  4.02451474E-01  1.30901827E-01  6.70535403E-02  9.46809706E+00  2.01035451E+00
  5.47710047E-01  1.52686138E-01  8.00000000E-01  1.17131851E-01  1.30107010E+01
  1.96225720E+00  4.44537960E-01  1.21949620E-01  8.00000000E-01  1.17040991E-01
  1.30107010E+01  1.96225720E+00  4.44537960E-01  1.21949620E-01  8.00000000E-01
  1.17040991E-01  1.30107010E+01  1.96225720E+00  4.44537960E-01  1.21949620E-01
  8.00000000E-01  1.17040991E-01
Contraction coefficients                   R   N=          97
  5.42659538E-03  4.06263781E-02  1.83597479E-01  4.74389488E-01  4.37351811E-01
 -9.27541548E-02  5.63808255E-01  5.03670446E-01  1.00000000E+00  1.00000000E+00
  1.00000000E+00 -8.87970256E-03 -6.42840717E-02 -2.42887397E-01 -4.83408364E-01
 -3.89525639E-01  1.00000000E+00  1.00000000E+00  1.00000000E+00  1.00000000E+00
  1.00000000E+00 -5.38935039E-03 -4.02347214E-02 -1.80081842E-01 -4.68288577E-01
 -4.46926172E-01  1.00000000E+00  1.00000000E+00  1.00000000E+00  6.26302488E-02
  3.33311385E-01  7.41486383E-01  1.00000000E+00  1.00000000E+00  1.00000000E+00
  1.00000000E+00 -5.38935039E-03 -4.02347214E-02 -1.80081842E-01 -4.68288577E-01
 -4.46926172E-01  1.00000000E+00  1.00000000E+00  1.00000000E+00  6.26302488E-02
  3.33311385E-01  7.41486383E-01  1.00000000E+00  1.00000000E+00  1.00000000E+00
  1.00000000E+00  5.51736505E-03  4.10888286E-02  1.82253821E-01  4.68284594E-01
  4.45758173E-01  1.00000000E+00  1.00000000E+00  1.00000000E+00  5.68883320E-02
  3.12940593E-01  7.60650165E-01  1.00000000E+00  1.00000000E+00  1.00000000E+00
  5.51736505E-03  4.10888286E-02  1.82253821E-01  4.68284594E-01  4.45758173E-01
  1.00000000E+00  1.00000000E+00  1.00000000E+00  5.68883320E-02  3.12940593E-01
  7.60650165E-01  1.00000000E+00  1.00000000E+00  1.00000000E+00  3.34854848E-02
  2.34721871E-01  8.13770285E-01  1.00000000E+00  1.00000000E+00  1.00000000E+00
  3.34854848E-02  2.34721871E-01  8.13770285E-01  1.00000000E+00  1.00000000E+00
  1.00000000E+00  3.34854848E-02  2.34721871E-01  8.13770285E-01  1.00000000E+00
  1.00000000E+00  1.00000000E+00
Coordinates of each shell                  R   N=         171
  4.11153384E+00  2.57002754E-03  1.27556514E-02  4.11153384E+00  2.57002754E-03
  1.27556514E-02  4.11153384E+00  2.57002754E-03  1.27556514E-02  4.11153384E+00
  2.57002754E-03  1.27556514E-02  4.11153384E+00  2.57002754E-03  1.27556514E-02
  4.11153384E+00  2.57002754E-03  1.27556514E-02  4.11153384E+00  2.57002754E-03
  1.27556514E-02  4.11153384E+00  2.57002754E-03  1.27556514E-02  4.11153384E+00
  2.57002754E-03  1.27556514E-02  4.11153384E+00  2.57002754E-03  1.27556514E-02
  4.11153384E+00  2.57002754E-03  1.27556514E-02 -3.20622274E+00  1.13410024E+00
  1.45508912E-03 -3.20622274E+00  1.13410024E+00  1.45508912E-03 -3.20622274E+00
  1.13410024E+00  1.45508912E-03 -3.20622274E+00  1.13410024E+00  1.45508912E-03
 -3.20622274E+00  1.13410024E+00  1.45508912E-03 -3.20622274E+00  1.13410024E+00
  1.45508912E-03 -3.20622274E+00  1.13410024E+00  1.45508912E-03 -3.20622274E+00
  1.13410024E+00  1.45508912E-03 -3.20622274E+00  1.13410024E+00  1.45508912E-03
 -9.96603768E-01 -2.47418063E+00 -2.84214810E-02 -9.96603768E-01 -2.47418063E+00
 -2.84214810E-02 -9.96603768E-01 -2.47418063E+00 -2.84214810E-02 -9.96603768E-01
 -2.47418063E+00 -2.84214810E-02 -9.96603768E-01 -2.47418063E+00 -2.84214810E-02
 -9.96603768E-01 -2.47418063E+00 -2.84214810E-02 -9.96603768E-01 -2.47418063E+00
 -2.84214810E-02 -9.96603768E-01 -2.47418063E+00 -2.84214810E-02 -9.96603768E-01
 -2.47418063E+00 -2.84214810E-02  1.17180028E+00  1.57219545E+00  1.95586655E-02
  1.17180028E+00  1.57219545E+00  1.95586655E-02  1.17180028E+00  1.57219545E+00
  1.95586655E-02  1.17180028E+00  1.57219545E+00  1.95586655E-02  1.17180028E+00
  1.57219545E+00  1.95586655E-02  1.17180028E+00  1.57219545E+00  1.95586655E-02
  1.17180028E+00  1.57219545E+00  1.95586655E-02  1.17180028E+00  1.57219545E+00
  1.95586655E-02 -1.05716949E+00 -2.21778259E-01 -5.66917840E-03 -1.05716949E+00
 -2.21778259E-01 -5.66917840E-03 -1.05716949E+00 -2.21778259E-01 -5.66917840E-03
 -1.05716949E+00 -2.21778259E-01 -5.66917840E-03 -1.05716949E+00 -2.21778259E-01
 -5.66917840E-03 -1.05716949E+00 -2.21778259E-01 -5.66917840E-03 -1.05716949E+00
 -2.21778259E-01 -5.66917840E-03 -1.05716949E+00 -2.21778259E-01 -5.66917840E-03
  1.06365125E+00  2.79139006E+00 -1.63408398E+00  1.06365125E+00  2.79139006E+00
 -1.63408398E+00  1.06365125E+00  2.79139006E+00 -1.63408398E+00  1.06365125E+00
  2.79139006E+00 -1.63408398E+00  1.05325776E+00  2.75745058E+00  1.69699296E+00
  1.05325776E+00  2.75745058E+00  1.69699296E+00  1.05325776E+00  2.75745058E+00
  1.69699296E+00  1.05325776E+00  2.75745058E+00  1.69699296E+00 -4.59575726E+00
 -4.77155849E-02 -1.49477337E-02 -4.59575726E+00 -4.77155849E-02 -1.49477337E-02
 -4.59575726E+00 -4.77155849E-02 -1.49477337E-02 -4.59575726E+00 -4.77155849E-02
 -1.49477337E-02
Constraint Structure                       R   N=          24
  4.11153384E+00  2.57002754E-03  1.27556514E-02 -3.20622274E+00  1.13410024E+00
  1.45508912E-03 -9.96603768E-01 -2.47418063E+00 -2.84214810E-02  1.17180028E+00
  1.57219545E+00  1.95586655E-02 -1.05716949E+00 -2.21778259E-01 -5.66917840E-03
  1.06365125E+00  2.79139006E+00 -1.63408398E+00  1.05325776E+00  2.75745058E+00
  1.69699296E+00 -4.59575726E+00 -4.77155849E-02 -1.49477337E-02
Num ILSW                                   I              100
ILSW                                       I   N=         100
           1           0           0           0           2           0
           0           0           0           0        4639          -1
           5           0           0           0           0           0
           0           0           0           0           0           0
           1           1           0           0           0           0
           0           0      100000           0          -1           0
           0           0           0           0           0           0
           0           0           0           1           0           0
           0           0           1           0           0           0
           0           0         121          41           0           0
           0           0          58           0           0           0
           0           0           0           8           0           0
           0           0           0           0           0           0
           0           0           0           0           0           0
           0           0           0           0           0           0
           0           0           0           0           0           0
           0           0           0           0
Num RLSW                                   I               41
RLSW                                       R   N=          41
  1.00000000E+00  1.00000000E+00  1.00000000E+00  1.00000000E+00  1.00000000E+00
  0.00000000E+00  2.00000000E-01  2.22036000E-01  0.00000000E+00  7.77964000E-01
  0.00000000E+00  2.00000000E-01  0.00000000E+00  0.00000000E+00  1.00000000E+00
  0.00000000E+00  0.00000000E+00  1.00000000E+00  0.00000000E+00  0.00000000E+00
  0.00000000E+00  0.00000000E+00  1.00000000E+00  0.00000000E+00  0.00000000E+00
  0.00000000E+00  0.00000000E+00  1.00000000E+00  0.00000000E+00  0.00000000E+00
  0.00000000E+00  0.00000000E+00  1.00000000E+00  0.00000000E+00  0.00000000E+00
  0.00000000E+00  0.00000000E+00  0.00000000E+00  1.00000000E+00  1.00000000E+00
  0.00000000E+00
MxBond                                     I                4
NBond                                      I   N=           8
           1           2           1           4           3           1
           1           1
IBond                                      I   N=          32
           4           0           0           0           5           8
           0           0           5           0           0           0
           1           5           6           7           2           3
           4           0           4           0           0           0
           4           0           0           0           2           0
           0           0
RBond                                      R   N=          32
  1.00000000E+00  0.00000000E+00  0.00000000E+00  0.00000000E+00  1.50000000E+00
  1.00000000E+00  0.00000000E+00  0.00000000E+00  2.00000000E+00  0.00000000E+00
  0.00000000E+00  0.00000000E+00  1.00000000E+00  1.00000000E+00  1.00000000E+00
  1.00000000E+00  1.50000000E+00  2.00000000E+00  1.00000000E+00  0.00000000E+00
  1.00000000E+00  0.00000000E+00  0.00000000E+00  0.00000000E+00  1.00000000E+00
  0.00000000E+00  0.00000000E+00  0.00000000E+00  1.00000000E+00  0.00000000E+00
  0.00000000E+00  0.00000000E+00
Virial Ratio                               R      2.004536364427655E+00
SCF Energy                                 R     -6.883140694357639E+02
Total Energy                               R     -6.883140694357639E+02
S**2                                       R     -1.882938249764266E-13
S**2 after annihilation                    R      7.094769216563315E-12
RMS Density                                R      9.224198169753591E-09
External E-field                           R   N=          35
  0.00000000E+00  0.00000000E+00  0.00000000E+00  0.00000000E+00  0.00000000E+00
  0.00000000E+00  0.00000000E+00  0.00000000E+00  0.00000000E+00  0.00000000E+00
  0.00000000E+00  0.00000000E+00  0.00000000E+00  0.00000000E+00  0.00000000E+00
  0.00000000E+00  0.00000000E+00  0.00000000E+00  0.00000000E+00  0.00000000E+00
  0.00000000E+00  0.00000000E+00  0.00000000E+00  0.00000000E+00  0.00000000E+00
  0.00000000E+00  0.00000000E+00  0.00000000E+00  0.00000000E+00  0.00000000E+00
  0.00000000E+00  0.00000000E+00  0.00000000E+00  0.00000000E+00  0.00000000E+00
IOpCl                                      I                1
IROHF                                      I                0
Alpha Orbital Energies                     R   N=         137
 -1.01696305E+02 -1.93378162E+01 -1.92791572E+01 -1.04629809E+01 -1.03858938E+01
 -9.59898996E+00 -7.35349996E+00 -7.34318370E+00 -7.34318265E+00 -1.23338868E+00
 -1.14033212E+00 -9.80029182E-01 -8.42888557E-01 -7.18781613E-01 -6.20369511E-01
 -6.05673546E-01 -5.98624936E-01 -5.28993670E-01 -5.23809507E-01 -5.14798167E-01
 -4.39307196E-01 -4.02593242E-01 -3.95899969E-01 -3.92162685E-01  5.52122156E-02
  6.38387900E-02  8.56944411E-02  9.83431364E-02  1.23013786E-01  1.30432137E-01
  1.49809449E-01  1.52281477E-01  1.63481116E-01  1.76132890E-01  1.86440936E-01
  1.86562481E-01  1.95648390E-01  2.34070798E-01  2.34817877E-01  2.52312856E-01
  2.64100173E-01  2.74326993E-01  2.86624837E-01  2.97497441E-01  3.14180929E-01
  3.26816114E-01  3.46520720E-01  3.47681965E-01  3.79265484E-01  3.79570294E-01
  3.95768275E-01  4.11938867E-01  4.24010869E-01  4.30071583E-01  4.31464126E-01
  4.55493684E-01  4.59892766E-01  4.70438974E-01  4.74764558E-01  4.92655373E-01
  4.92867641E-01  5.21180566E-01  5.38978851E-01  5.41556905E-01  5.50375335E-01
  5.59898770E-01  5.86605342E-01  5.95851897E-01  6.31226597E-01  6.52238521E-01
  6.57043400E-01  6.75179741E-01  6.76422460E-01  7.11358202E-01  7.31225015E-01
  7.33099541E-01  7.67655419E-01  7.82540920E-01  7.85278644E-01  8.55864691E-01
  9.07015095E-01  9.29836128E-01  9.57995458E-01  9.74317262E-01  9.87366140E-01
  1.05714976E+00  1.06465913E+00  1.07497538E+00  1.08194662E+00  1.10906068E+00
  1.11470724E+00  1.13065194E+00  1.15720618E+00  1.20387824E+00  1.25647662E+00
  1.31294190E+00  1.35868042E+00  1.38306478E+00  1.47547812E+00  1.51613473E+00
  1.55498387E+00  1.59737559E+00  1.61569474E+00  1.62722682E+00  1.67037583E+00
  1.74046684E+00  1.74679880E+00  1.76354370E+00  1.86303697E+00  1.87609716E+00
  1.90069913E+00  1.94929041E+00  1.97916937E+00  1.98435377E+00  2.04539146E+00
  2.15258968E+00  2.15474993E+00  2.19754431E+00  2.27205366E+00  2.31775692E+00
  2.36209043E+00  2.48951023E+00  2.49083028E+00  2.58148637E+00  2.62577760E+00
  2.89535913E+00  2.96910546E+00  2.99493862E+00  3.02674474E+00  3.04786453E+00
  3.10571011E+00  3.21086120E+00  3.32580991E+00  3.41027583E+00  3.66137552E+00
  3.88613535E+00  4.00612909E+00
Beta Orbital Energies                      R   N=         137
 -1.01696305E+02 -1.93378162E+01 -1.92791572E+01 -1.04629809E+01 -1.03858938E+01
 -9.59898996E+00 -7.35349996E+00 -7.34318370E+00 -7.34318265E+00 -1.23338868E+00
 -1.14033212E+00 -9.80029182E-01 -8.42888557E-01 -7.18781613E-01 -6.20369511E-01
 -6.05673546E-01 -5.98624936E-01 -5.28993670E-01 -5.23809507E-01 -5.14798167E-01
 -4.39307196E-01 -4.02593242E-01 -3.95899969E-01 -3.92162685E-01  5.52122156E-02
  6.38387900E-02  8.56944411E-02  9.83431364E-02  1.23013786E-01  1.30432137E-01
  1.49809449E-01  1.52281477E-01  1.63481116E-01  1.76132890E-01  1.86440936E-01
  1.86562481E-01  1.95648390E-01  2.34070798E-01  2.34817877E-01  2.52312856E-01
  2.64100173E-01  2.74326993E-01  2.86624837E-01  2.97497441E-01  3.14180929E-01
  3.26816114E-01  3.46520720E-01  3.47681965E-01  3.79265484E-01  3.79570294E-01
  3.95768275E-01  4.11938867E-01  4.24010869E-01  4.30071583E-01  4.31464126E-01
  4.55493684E-01  4.59892766E-01  4.70438974E-01  4.74764558E-01  4.92655373E-01
  4.92867641E-01  5.21180566E-01  5.38978851E-01  5.41556905E-01  5.50375335E-01
  5.59898770E-01  5.86605342E-01  5.95851897E-01  6.31226597E-01  6.52238521E-01
  6.57043400E-01  6.75179741E-01  6.76422460E-01  7.11358202E-01  7.31225015E-01
  7.33099541E-01  7.67655419E-01  7.82540920E-01  7.85278644E-01  8.55864691E-01
  9.07015095E-01  9.29836128E-01  9.57995458E-01  9.74317262E-01  9.87366140E-01
  1.05714976E+00  1.06465913E+00  1.07497538E+00  1.08194662E+00  1.10906068E+00
  1.11470724E+00  1.13065194E+00  1.15720618E+00  1.20387824E+00  1.25647662E+00
  1.31294190E+00  1.35868042E+00  1.38306478E+00  1.47547812E+00  1.51613473E+00
  1.55498387E+00  1.59737559E+00  1.61569474E+00  1.62722682E+00  1.67037583E+00
  1.74046684E+00  1.74679880E+00  1.76354370E+00  1.86303697E+00  1.87609716E+00
  1.90069913E+00  1.94929041E+00  1.97916937E+00  1.98435377E+00  2.04539146E+00
  2.15258968E+00  2.15474993E+00  2.19754431E+00  2.27205366E+00  2.31775692E+00
  2.36209043E+00  2.48951023E+00  2.49083028E+00  2.58148637E+00  2.62577760E+00
  2.89535913E+00  2.96910546E+00  2.99493862E+00  3.02674474E+00  3.04786453E+00
  3.10571011E+00  3.21086120E+00  3.32580991E+00  3.41027583E+00  3.66137552E+00
  3.88613535E+00  4.00612909E+00
Alpha MO coefficients                      R   N=       18769
  9.93976203E-01  2.27671865E-02 -1.35780658E-02  1.82226059E-02 -3.34433005E-03
  1.70300035E-04 -9.89584626E-05 -4.76400707E-07  7.72860285E-04 -4.51625063E-04
 -2.18820835E-06 -3.95197541E-03  2.41651295E-03  1.22793572E-05  7.50734758E-04
  4.78840263E-04  7.22185378E-06 -2.14659414E-04 -3.44508649E-07  1.38185504E-06
  1.74464446E-04 -2.01282153E-04 -3.20174798E-04 -3.59842828E-06  4.85661533E-06
 -7.54796540E-05 -4.99985792E-04 -8.26921549E-06 -1.56352567E-04  1.48268540E-03
 -2.32057108E-03  4.64615430E-05  5.19536094E-05  6.74958350E-07 -3.27272494E-04
 -7.45319139E-04 -8.62000511E-06 -3.14465424E-04  2.05222609E-04  1.11631879E-06
 -1.83218600E-05  4.21936873E-07  2.62853309E-07  1.43614926E-05  2.72001111E-05
  2.30555063E-04 -1.79433358E-06  3.67137854E-06 -7.09336487E-04  1.64157742E-04
  1.68262490E-05  1.40555010E-04 -1.20536393E-03 -8.61486093E-03 -5.68474873E-05
 -4.68228111E-05 -6.54620461E-07  4.43161773E-04  6.14048614E-04  7.64089423E-06
  1.21764052E-03 -2.19553780E-03 -1.85537500E-05 -5.37686638E-05  4.61300575E-07
  1.09265141E-06 -8.21434107E-06  1.92451769E-05 -1.53441813E-04 -7.90434018E-07
  1.94497547E-06  2.40950459E-05 -1.66185217E-04  6.96676531E-06  2.17166806E-04
 -3.34109375E-03 -1.61060736E-03 -6.02066227E-05  3.69494217E-05  1.88361927E-07
 -1.94918005E-03  1.63090806E-03  1.05401112E-05 -4.72313770E-05  6.69827416E-08
  9.88750702E-07 -1.89369768E-05 -1.27357058E-05  1.98477745E-03 -7.13214731E-06
  1.20357920E-05 -4.12128343E-03  1.62125905E-03 -1.04774916E-05  6.84832215E-05
  9.14738208E-04  1.20614278E-02  4.19388212E-05  2.64197557E-05  4.00558277E-07
  1.54327310E-03  1.80413111E-03  2.31845444E-05  3.16930230E-05  1.59709243E-07
 -1.41584276E-06  8.60744693E-05  6.13445560E-06 -2.55917673E-04  3.66022320E-06
  6.91179346E-05 -5.73485236E-03  1.97981867E-03  1.97518064E-04 -3.78113118E-03
  1.02052676E-04 -4.33266244E-05 -3.13208112E-06  6.48518562E-04  4.36556225E-04
 -5.95553758E-04  1.97517075E-04 -3.78122320E-03  1.02033682E-04 -4.33836478E-05
  2.88772890E-06  6.44816216E-04  4.24296626E-04  6.08392464E-04 -3.38220863E-04
  4.03970401E-03 -6.82147311E-05  1.85471670E-05 -2.81031946E-08  9.70173556E-04
  1.41452644E-04  4.47411717E-06 -3.93055616E-06  3.95145701E-05 -6.69180330E-04
  3.29880961E-03  1.54334764E-03  4.58625461E-05  4.87178477E-05  6.39775713E-07
  3.17831590E-04  2.84296554E-04  3.89017693E-06 -2.81600499E-03 -7.06018393E-04
 -1.59829090E-05 -1.19892099E-03 -2.28452477E-04 -6.09083905E-06 -1.21204240E-04
  6.53985121E-07  3.37969152E-07  1.61510819E-04 -4.95428502E-05 -5.02285796E-05
  4.85971279E-06 -4.34779277E-06  5.95346918E-04  2.64927146E-04  9.88335705E-01
 -4.67861749E-02  5.41030295E-02  3.90380222E-02 -4.59635977E-04  2.10977151E-03
  2.01020052E-05  8.87856093E-03 -4.46951088E-03 -1.79003321E-05  6.15673779E-03
 -3.07645603E-03 -1.21790167E-05  2.98751169E-04 -1.04464353E-05 -5.98745700E-06
 -1.78999553E-04 -8.10198633E-04 -6.62649215E-04  2.02850526E-05 -1.32996358E-05
  2.69960043E-03  8.09697205E-04 -2.63242340E-04 -8.66994682E-05  1.26371397E-03
  2.59637464E-02 -9.57494857E-05  3.14039006E-04  2.90392378E-06 -1.31802791E-03
 -5.73630865E-04 -9.96708654E-06  2.86801500E-03  4.54223130E-03  5.51684370E-05
 -6.87165284E-07 -3.45662237E-06 -2.73103191E-08 -9.16639519E-05 -3.12034441E-04
 -7.32115704E-04 -1.14126792E-05 -4.52837166E-06  1.14688611E-03 -1.85511765E-03
 -7.10491327E-05  1.15368633E-03 -1.12054906E-02  4.28304838E-03 -4.55863841E-04
 -3.10368738E-04 -4.58541514E-06 -3.23027000E-03  5.77781501E-03  4.88711039E-05
 -6.48824449E-05  3.71073970E-06 -2.18567540E-06  3.91115906E-04  2.10124189E-04
 -9.19247236E-04  9.01348017E-06 -1.42918528E-05  2.86108960E-03 -4.76605533E-04
 -1.11931806E-04  1.39804680E-04 -1.49778244E-02 -6.12738099E-02  5.11977752E-04
 -2.54226571E-04 -9.95681031E-07  2.26915339E-02 -1.48669273E-02 -8.08726532E-05
  5.26160762E-05 -4.83902832E-06 -5.87674477E-06  3.18889267E-04 -5.44919165E-04
  8.34098989E-03  7.45794245E-05 -1.68129611E-04  5.14950961E-03  1.01471714E-02
 -1.61499074E-05  4.02970441E-03 -2.09889943E-04 -2.34036389E-04  9.78286695E-05
 -6.69318227E-04 -1.02793545E-03  3.62963016E-04 -1.61466514E-05  4.02922123E-03
 -2.09268484E-04 -2.31982852E-04 -1.03881387E-04 -6.66937745E-04 -1.02029087E-03
 -3.87872668E-04  8.98683828E-04 -1.69006578E-02  1.68282894E-03  1.50247817E-03
  2.05948768E-05 -4.45831545E-03 -4.38368555E-03 -5.86546196E-05  9.92281641E-06
 -8.94637572E-05  1.12562230E-03 -1.19017395E-02  4.37404572E-04  1.04162560E-05
  2.72695674E-05  3.09749366E-07  5.70379032E-05  1.81142461E-04  2.01976203E-06
  2.42879499E-03 -1.27820756E-03 -5.41289667E-06 -7.54838017E-04 -2.05144503E-04
 -4.44762985E-06  1.31208819E-05  5.08516811E-07  4.07166696E-07 -4.12465834E-05
  6.97575582E-05 -2.22106075E-04  9.23282972E-07 -4.42575772E-06  7.40674268E-04
 -2.54170416E-04  2.89191008E-04 -1.97259081E-04 -5.27228797E-05  2.25477296E-02
  2.71078418E-04 -2.06734306E-04 -1.25583031E-06 -1.54561691E-03 -8.33724457E-04
 -1.33460620E-05  4.40763590E-03 -3.94409081E-04  9.64220136E-06 -4.14450101E-05
 -3.00741000E-06  1.70193961E-06 -1.75714242E-04 -2.63492064E-04 -1.63516814E-03
  5.38937677E-06  6.02085088E-05 -2.90876135E-03  5.49207256E-04  9.88233373E-01
 -4.87683610E-02  7.57356773E-02  5.69889315E-02  2.64083450E-04 -2.75699825E-03
 -2.72543073E-05 -1.34976315E-03  1.23169508E-02  1.21232823E-04 -6.36646777E-04
  1.08500117E-02  1.08518996E-04  3.23037447E-05  1.27943147E-08 -2.87213083E-06
  2.11796073E-04 -4.64461614E-05  1.77471991E-03 -1.31047865E-05 -3.66970779E-05
  3.85607029E-04 -4.62935187E-04 -3.22143395E-05 -2.50914409E-05 -3.29881724E-02
  8.68621695E-03  8.63013394E-05 -4.16197333E-05 -1.52423074E-07  5.88362724E-03
  4.37955161E-03  6.30078550E-05 -4.96283348E-05  4.28909585E-07  5.55397899E-06
 -4.15208524E-04  1.42932239E-04 -1.08820665E-02 -6.83282796E-06  1.33981328E-04
  3.40641204E-03 -7.49580513E-03 -3.01930735E-04 -6.27468910E-04 -1.92734344E-02
 -8.18794078E-02 -2.24465639E-04 -4.59499677E-04 -5.38266505E-06  7.72186930E-03
  4.70756729E-02  5.03621139E-04 -3.77117300E-04 -2.83364618E-06  1.88146035E-05
 -1.22537371E-03 -1.03049737E-04  1.21735988E-02  6.08768194E-05 -4.91885299E-04
  2.83537238E-02  3.74400805E-03  3.82272621E-04  1.71214925E-02 -4.48874457E-05
  5.40701874E-05 -5.81170870E-05 -7.21372155E-04 -4.83375875E-03 -7.28253771E-04
  3.82281072E-04  1.71211254E-02 -4.52564861E-05  5.28875115E-05  5.89306976E-05
 -7.25604229E-04 -4.84745004E-03  6.25162070E-04 -6.32764267E-04 -1.08158175E-02
  9.79568564E-05 -1.24661996E-04 -9.68105431E-07 -3.92149428E-03  7.19402516E-04
 -4.88753002E-06 -5.09875958E-06  6.11890114E-05 -3.18883966E-04 -1.04002616E-03
 -1.26035636E-03  5.80633359E-05  1.45507760E-05  3.30249603E-07  3.46629116E-04
  1.09816160E-04  2.20581270E-06  1.72579374E-04 -7.92970036E-04 -7.56280552E-06
 -9.66373382E-05 -9.15579376E-04 -9.63330281E-06 -8.98475759E-05  2.13572158E-06
  3.49810715E-06 -1.26490018E-04  2.00627601E-04  3.61368340E-04 -1.20711391E-06
 -1.38038675E-05  6.85774320E-04 -1.37537731E-04 -2.06859260E-05  1.15462596E-03
 -6.99178500E-03  1.19169467E-02 -2.41646266E-04  4.22339189E-05 -3.19192801E-07
 -4.37054404E-03  7.14344284E-03  5.92000077E-05 -3.33181318E-03 -3.98504605E-04
 -1.44832043E-05  1.00045830E-03  1.71466680E-06 -1.11690974E-05 -3.88077771E-04
  8.17192386E-04  7.63061597E-04  5.37404366E-05  5.54493325E-06 -1.21192738E-04
  5.71332601E-03  1.97382504E-04  1.26926187E-04 -6.96179346E-03  2.50375696E-02
 -4.52566628E-05 -5.35843966E-04 -5.59692696E-06  1.57308672E-03 -9.55466953E-03